# vtk DataFile Version 2.0
Volume example
ASCII
DATASET STRUCTURED_POINTS
DIMENSIONS 3 4 2
ASPECT_RATIO 1 1 1
ORIGIN 0 0 0
POINT_DATA 24
SCALARS volume_scalars char 6
LOOKUP_TABLE default
0 1 2 3 4 5
1 1 2 3 4 5
2 1 2 3 4 5
0 2 2 3 4 5
1 2 2 3 4 5
2 2 2 3 4 5
0 3 2 8 9 10
1 3 2 8 9 10
2 3 2 8 9 10
0 4 2 8 9 10
1 4 2 8 9 10
2 4 2 8 9 10
0 1 3 18 19 20
1 1 3 18 19 20
2 1 3 18 19 20
0 2 3 18 19 20
1 2 3 18 19 20
2 2 3 18 19 20
0 3 3 24 25 26
1 3 3 24 25 26
2 3 3 24 25 26
0 4 3 24 25 26
1 4 3 24 25 26
2 4 3 24 25 26
